% Model:              temp.mph
% Version:            COMSOL 5.4.0.225
% Date:               May 10 2023, 20:39
% Dimension:          3
% Nodes:              218
% Expressions:        1
% Description:        体
% X                       Y                        Z                        Color
0                         0.5                      3                        -0.1567388581599559
0.5                       0.5000000000000001       3                        -0.10884788025814829
0.5                       0                        3                        -0.09905884354291083
0                         1                        2.9999999999999996       -0.16586128201421568
0.5000000000000002        1.0000000000000002       3.0000000000000004       -0.11752565147016923
1.0000000000000002        0.5000000000000001       3.0000000000000004       -0.06070327758056693
1                         0                        2.9999999999999996       -0.05135889350756834
0                         1.5                      3                        -0.17387244036525898
0.5                       1.5000000000000002       3                        -0.12509215717897365
1.0000000000000002        1.0000000000000002       3.0000000000000004       -0.06893639615034901
1.5000000000000002        0.5                      3.0000000000000004       -0.012305050127211796
1.5                       0                        3                        -0.0034053186964520636
0                         2                        2.9999999999999996       -0.18077233321308572
0.5                       2                        3.0000000000000004       -0.13154739738456156
1                         1.5000000000000002       3                        -0.07605824921691456
1.5000000000000002        1                        3.000000000000001        -0.020093516054755026
2                         0.5                      3.0000000000000004       0.03634680210191707
2                         0                        2.9999999999999996       0.04480188089043794
0                         2.5000000000000004       3.0000000000000004       -0.186560960557696
0.5                       2.5000000000000004       3.0000000000000013       -0.13689137208693292
1                         2                        3.0000000000000004       -0.08206883678026358
1.5                       1.5                      3                        -0.026770716479081705
2.0000000000000004        1                        3.0000000000000004       0.029002988816612722
2.5000000000000004        0.5                      3.000000000000001        0.08525227910681969
2.5000000000000004        0                        3.0000000000000004       0.09326270525310174
0                         1.0000000000000002       2.5                      -0.17362777305306554
0                         0.5                      2.5                      -0.16898246053444235
0                         1.5000000000000002       2.500000000000001        -0.17716182006847214
0                         2                        2.5000000000000004       -0.17958460158066225
0                         2.5                      2.5000000000000004       -0.18089611758963586
0                         3.0000000000000004       2.5000000000000013       -0.18109636809539295
0                         1.5000000000000002       2.0000000000000004       -0.17175875999989137
0                         1                        2                        -0.17270182432012138
0                         2.0000000000000004       2.0000000000000004       -0.16970443017644485
0                         2.5                      2                        -0.1665388348497818
0                         3                        2.0000000000000004       -0.16226197401990222
0                         2                        1.5                      -0.1511318190004335
0                         1.5                      1.5                      -0.15766326015951665
0                         2.5000000000000004       1.5000000000000004       -0.1434891123381338
0                         3                        1.5                      -0.13473514017261756
0                         2.5                      1.0000000000000002       -0.11174695005469187
0                         2                        0.9999999999999998       -0.12386676805262818
0                         3                        1.0000000000000004       -0.09851586655353901
0                         3.000000000000001        0.5000000000000007       -0.053604153162666486
0                         2.5000000000000004       0.5000000000000002       -0.07131234799945596
0                         0                        3                        -0.14650516880247955
0                         3                        3                        -0.19123832239908967
3                         0                        3                        0.14197715439153924
0                         3                        0                        0
0                         0                        0.5                      -0.0805019123428205
0.5                       0                        1.0000000000000002       -0.08824011624685539
0.5                       0                        0.5                      -0.029451050213767625
0                         0                        1                        -0.1385700710020114
0.5000000000000002        0                        1.5000000000000002       -0.1245954285963136
1.0000000000000002        0                        1.5000000000000002       -0.07473275643928062
1                         0                        1                        -0.03765653671592558
0                         0                        1.5                      -0.1742044759775728
0.5                       0                        2                        -0.13851698726214226
1.0000000000000002        0                        2.0000000000000004       -0.08937522247900609
1.5000000000000002        0                        2                        -0.039979832920096166
1.5                       0                        1.5                      -0.024616459506473877
0                         0                        2                        -0.1874051272695046
0.5                       0                        2.5                      -0.13000479224434133
1                         0                        2.5                      -0.081583934835102
1.5000000000000002        0                        2.5000000000000004       -0.0329094526500889
2                         0                        2.5                      0.016018654310697926
2                         0                        2                        0.009669181414587499
0                         0                        2.5000000000000004       -0.17817202487780687
2.5000000000000004        0                        2.5000000000000004       0.06520038604725856
0                         0.5                      0.5000000000000001       -0.0786639994741476
0                         0.5                      0                        0
0                         0.5000000000000002       1.0000000000000002       -0.13489424526466562
0                         0.5                      1.5000000000000002       -0.1686907373715541
0                         0.5                      2                        -0.180053475794813
0                         1.0000000000000002       0.5000000000000001       -0.07682608660547469
0                         1                        0                        0
0                         1.0000000000000002       1.0000000000000002       -0.1312184195273198
0                         1                        1.5000000000000002       -0.16317699876553537
0                         1.5000000000000002       0.5                      -0.07498817373680176
0                         1.5                      0                        0
0                         1.5000000000000002       1                        -0.12754259378997398
0                         2                        0.5                      -0.07315026086812887
0                         2                        0                        0
0                         2.5000000000000004       0                        0
0                         0                        0                        0
0.5                       0                        0                        0
0.5000000000000001        0.5                      0                        0
1                         0                        0                        0
1.0000000000000002        0.5000000000000002       0                        0
0.5000000000000001        1.0000000000000002       0                        0
1.5                       0                        0                        0
1.5000000000000002        0.5                      0                        0
1.0000000000000002        1.0000000000000002       0                        0
0.5                       1.5000000000000002       0                        0
2                         0                        0                        0
2                         0.5                      0                        0
1.5000000000000002        1                        0                        0
1                         1.5000000000000002       0                        0
0.5                       2                        0                        0
2.5000000000000004        0                        0                        0
2.5000000000000004        0.5                      0                        0
2                         1                        0                        0
1.5                       1.5                      0                        0
1                         2.0000000000000004       0                        0
0.5                       2.5000000000000004       0                        0
1.0000000000000002        0                        0.5                      -0.011874374214227879
1.5000000000000002        0                        0.5000000000000002       0.005702301785311868
2                         0                        0.5                      0.023278977784851617
2.5                       0                        0.5                      0.040855653784391356
3.0000000000000004        0                        0.5                      0.05843232978393112
1.5000000000000002        0                        1.0000000000000002       -0.0025031847168460923
2.0000000000000004        0                        1.0000000000000002       0.032650167282233404
2.5                       0                        1                        0.0678035192813129
3                         0                        1                        0.1029568712803924
2                         0                        1.5000000000000002       0.02811356849214536
2.5000000000000004        0                        1.5000000000000002       0.0808435964907646
3                         0                        1.5                      0.13357362448938384
2.5                       0                        2                        0.07997588541274647
3                         0                        2.0000000000000004       0.15028258941090544
3.000000000000001         0                        2.5000000000000004       0.15308376604495727
3                         0                        0                        0
0.5                       3                        3                        -0.13797846782777173
1.0000000000000002        2.5                      3                        -0.08303766752852329
1                         2.9999999999999996       2.9999999999999996       -0.08524514249751308
1.5000000000000002        2.500000000000001        3.0000000000000004       -0.02971049221117291
1.5000000000000002        2.0000000000000004       3.0000000000000004       -0.027621282234762255
1.5                       3                        3                        -0.03303834640831369
2                         2.5000000000000004       3                        0.023090153865118188
2.0000000000000004        2.0000000000000004       3.0000000000000004       0.026299743069679818
2                         1.5                      3.0000000000000004       0.028270688053511333
2                         2.9999999999999996       2.9999999999999996       0.018641920439826456
2.5                       2.5000000000000004       3.0000000000000004       0.07536427070035004
2.5                       2                        3                        0.07969423913306262
2.5000000000000004        1.5000000000000004       3.000000000000001        0.08278556334504508
2.5                       1.0000000000000002       3.0000000000000004       0.08463824333629745
2.5000000000000004        3.0000000000000004       3.0000000000000004       0.06979565804690732
3.0000000000000004        2.5000000000000013       3.0000000000000013       0.1271118582945226
3                         2.0000000000000004       3.0000000000000004       0.13256220595538615
3                         1.5                      3                        0.13677390939551962
3                         1.0000000000000004       3.0000000000000004       0.13974696861492295
3.000000000000001         0.5000000000000007       3.000000000000001        0.14148138361359613
0.5000000000000001        3                        2.5                      -0.13080488536139762
1.0000000000000002        3.0000000000000004       2.500000000000001        -0.08103993186846158
1.5000000000000002        3                        2.5000000000000004       -0.03180150761658479
2                         3.0000000000000004       2.5000000000000004       0.016910387394232725
2.5000000000000004        3.0000000000000013       2.5000000000000013       0.06509575316399098
0.5000000000000001        3.0000000000000004       2.0000000000000004       -0.11493886312322955
1.0000000000000002        3.0000000000000004       2.0000000000000004       -0.06814228146761611
1.5000000000000002        3                        2                        -0.021872229053061947
2                         3.0000000000000004       2.0000000000000004       0.02387129412043296
0.5                       3.0000000000000004       1.5                      -0.09038040111326752
1                         3.000000000000001        1.5000000000000004       -0.04655219129497674
1.5                       3                        1.5                      -0.00325051071774517
0.5                       3.0000000000000004       1.0000000000000002       -0.05712949933151156
1                         3.0000000000000004       1.0000000000000004       -0.016269661350543377
0.5                       3.000000000000001        0.5000000000000007       -0.015186157777961666
3                         3                        3                        0.12042286641292894
3                         3                        0.5                      0.03961275542887694
2.5                       3                        0.5000000000000001       0.028652972787509227
2.5                       3                        0                        0
2.9999999999999996        2.9999999999999996       1                        0.07140859978039837
2.500000000000001         3.0000000000000004       1.0000000000000002       0.049489034497662954
2.0000000000000004        3.0000000000000004       0.5000000000000001       0.017693190146141517
2                         2.9999999999999996       0                        0
3                         3                        1.5                      0.0953875330545643
2.5000000000000004        3                        1.5000000000000002       0.06250818513046115
2.0000000000000004        3.0000000000000004       1.0000000000000002       0.02756946921492751
1.5                       3.0000000000000004       0.5                      0.0067334075047737925
1.5                       3                        0                        0
2.9999999999999996        2.9999999999999996       2                        0.1115495552513747
2.5000000000000004        3.0000000000000004       2                        0.06771042468590384
2                         3                        1.5000000000000002       0.029628837206357995
1.5000000000000004        3.000000000000001        1                        0.005649903932192069
1.0000000000000002        3.0000000000000004       0.5                      -0.004226375136593924
0.9999999999999998        2.9999999999999996       0                        0
3.0000000000000004        3.0000000000000004       2.5000000000000004       0.11989466637082957
0.5000000000000002        3.0000000000000004       0                        0
3                         2.5                      1.0000000000000002       0.08570991978901564
3                         2.5                      0.5                      0.05581715746925011
3.0000000000000004        2.500000000000001        1.5000000000000002       0.10778577103142567
3                         2.5000000000000004       2                        0.12204471119648017
3.0000000000000004        2.5000000000000004       2.5                      0.12848674028417914
3.0000000000000004        2.0000000000000004       1.5000000000000002       0.1189453647875569
2.9999999999999996        2                        1                        0.09877259557690278
3.0000000000000004        2.0000000000000004       2.0000000000000004       0.1313012229208555
3                         2                        2.5                      0.1358401699767986
3.0000000000000004        1.5                      2                        0.13931909042450075
3                         1.5                      1.5                      0.12886631432295803
3.000000000000001         1.5000000000000004       2.5000000000000004       0.14195495544868797
3.0000000000000004        1.0000000000000002       2.5                      0.14683109669984717
2.9999999999999996        0.9999999999999998       2                        0.14609831370741588
3.0000000000000004        0.5000000000000002       2.5000000000000004       0.15046859373027627
3                         3                        0                        0
3                         0.5                      0                        0
2.5                       1.0000000000000002       0                        0
2.9999999999999996        1                        0                        0
2.500000000000001         1.5000000000000002       0                        0
2.0000000000000004        1.5000000000000002       0                        0
3                         1.5                      0                        0
2.5000000000000004        2                        0                        0
2.0000000000000004        2.0000000000000004       0                        0
1.5                       2                        0                        0
2.9999999999999996        2                        0                        0
2.5000000000000004        2.5                      0                        0
2                         2.5                      0                        0
1.5000000000000004        2.5000000000000004       0                        0
1.0000000000000002        2.5                      0                        0
3.0000000000000004        2.5000000000000004       0                        0
3                         0.5000000000000001       0.5                      0.05790929532099492
3.0000000000000004        1.0000000000000002       0.5000000000000002       0.057386260858058716
3                         1.5000000000000002       0.5                      0.056863226395122514
3.0000000000000004        2                        0.5                      0.05634019193218631
3.0000000000000004        0.5000000000000001       1.0000000000000002       0.10191080235452
3.0000000000000004        1.0000000000000002       1.0000000000000002       0.1008647334286476
3                         1.5000000000000002       1                        0.09981866450277518
3.0000000000000004        0.5                      1.5000000000000002       0.13200452110057526
3.000000000000001         1                        1.5000000000000002       0.13043541771176667
3.0000000000000004        0.5                      2                        0.1481904515591607
